                         Program Version 5.0.4 -  RELEASE  -
|  1> ! RI-MP2-F12 nousesym verytightscf NoPOP PRINTBASIS
|  2>
|  3> %basis
|  4> GTOName = "/work/emmanous/4F12orbitalbasisforTMs_sequel/I2/VTZ-PP-F12/ORCA/obs.orca"
|  5> GTOAuxJKName = "/work/emmanous/4F12orbitalbasisforTMs_sequel/I2/VTZ-PP-F12/ORCA/jkbasis.orca"
|  6> GTOAuxCName = "/work/emmanous/4F12orbitalbasisforTMs_sequel/I2/VTZ-PP-F12/ORCA/mp2fitbasis.orca"
|  7> GTOCABSName = "/work/emmanous/4F12orbitalbasisforTMs_sequel/I2/VTZ-PP-F12/ORCA/jkbasis.orca"
|  8> NewECP I "SK-MCDHF-RSC" end
|  9> DecontractCABS  false
| 10> end
| 11>
| 12> %pal nprocs 16
| 13> end
| 14> %maxcore 2000
| 15>
| 16> %method
| 17> NewNCore I 28 end
| 18> F12Gamma 1.0
| 19> end
| 20>
| 21> *xyz 0 1
| 22> I 	0.0000 	0.0000 	0.0000
| 23> I 	0.0000 	0.0000  2.6655
| 24> *
| 25>
| 26>                          ****END OF INPUT****

CARTESIAN COORDINATES (ANGSTROEM)
---------------------------------
  I      0.000000    0.000000    0.000000
  I      0.000000    0.000000    2.665500

 Total Charge           Charge          ....    0
 Multiplicity           Mult            ....    1
 Number of Electrons    NEL             ....   50
 Basis Dimension        Dim             ....  148

ORBITAL ENERGIES
----------------

  NO   OCC          E(Eh)            E(eV)
   0   2.0000      -7.753722      -210.9895
   1   2.0000      -7.753691      -210.9887
   2   2.0000      -5.587445      -152.0421
   3   2.0000      -5.587183      -152.0350
   4   2.0000      -5.574450      -151.6885
   5   2.0000      -5.574450      -151.6885
   6   2.0000      -5.574417      -151.6876
   7   2.0000      -5.574417      -151.6876
   8   2.0000      -2.319551       -63.1182
   9   2.0000      -2.313588       -62.9559
  10   2.0000      -2.311956       -62.9115
  11   2.0000      -2.311956       -62.9115
  12   2.0000      -2.310022       -62.8589
  13   2.0000      -2.310022       -62.8589
  14   2.0000      -2.296694       -62.4962
  15   2.0000      -2.296694       -62.4962
  16   2.0000      -2.296556       -62.4925
  17   2.0000      -2.296556       -62.4925
  18   2.0000      -0.961687       -26.1688
  19   2.0000      -0.842078       -22.9141
  20   2.0000      -0.468846       -12.7580
  21   2.0000      -0.440026       -11.9737
  22   2.0000      -0.440026       -11.9737
  23   2.0000      -0.360317        -9.8047
  24   2.0000      -0.360317        -9.8047
  25   0.0000      -0.019922        -0.5421
  26   0.0000       0.052586         1.4309
  27   0.0000       0.055403         1.5076
  28   0.0000       0.063730         1.7342
  29   0.0000       0.063730         1.7342

-------
TIMINGS
-------

MP2 TOTAL ENERGY:     -591.062668102 Eh
FINAL SINGLE POINT ENERGY      -591.062668101965

DIPOLE MOMENT
-------------
                                X             Y             Z
Electronic contribution:      0.00000      -0.00000      -0.00000
Nuclear contribution   :      0.00000       0.00000       0.00000
                        -----------------------------------------
Total Dipole Moment    :      0.00000      -0.00000      -0.00000
                        -----------------------------------------
Magnitude (a.u.)       :      0.00000
Magnitude (Debye)      :      0.00000

Rotational constants in cm-1:     0.000000     0.037395     0.037395
Rotational constants in MHz :     0.000000  1121.059346  1121.059346

                             ****ORCA TERMINATED NORMALLY****
TOTAL RUN TIME: 0 days 0 hours 2 minutes 23 seconds 938 msec
