                         Program Version 5.0.4 -  RELEASE  -
|  1> # input to generate an atomic fitting density for I
|  2> # this file is used internally by ORCA
|  3> #
|  4> # atomic ground state (S=2): 1s2 2s2 2p6 3s2 3p6 4s2 3d10 4p6 5s2 4d10 5p5
|  5> #
|  6> ! RHF AllowRHF def2-SVP def2/J  NoMulliken NoLoewdin NoMayer NoPrintMOs
|  7>
|  8> %output print[p_atomdensfit] 2 end
|  9>
| 10> %scf
| 11>   guess hcore
| 12>   maxiter 1000
| 13>   maxdisk 500000
| 14>   SCFMode Conventional
| 15>   lshift 1.000000
| 16>   hftyp rohf
| 17>   rohf_case sahf
| 18>   rohf_numop   2
| 19>   rohf_norb[1] 3
| 20>   rohf_nel[1]  5
| 21> end
| 22>
| 23> %basis
| 24>   NewECP 53
| 25>     N_core 28
| 26>     lmax g
| 27>     s 3
| 28>       1      40.0333760000     49.9896490000  2
| 29>       2      17.3005760000    281.0065560000  2
| 30>       3       8.8517200000     61.4167390000  2
| 31>     p 4
| 32>       1      15.7201410000     67.4162390000  2
| 33>       2      15.2082220000    134.8076960000  2
| 34>       3       8.2941860000     14.5665480000  2
| 35>       4       7.7539490000     28.9684220000  2
| 36>     d 4
| 37>       1      13.8177510000     35.5387560000  2
| 38>       2      13.5878050000     53.3397590000  2
| 39>       3       6.9476300000      9.7164660000  2
| 40>       4       6.9600990000     14.9775000000  2
| 41>     f 4
| 42>       1      18.5229500000    -20.1766180000  2
| 43>       2      18.2510350000    -26.0880770000  2
| 44>       3       7.5579010000     -0.2204340000  2
| 45>       4       7.5974040000     -0.2216460000  2
| 46>     g 1
| 47>       1       1.0000000000      0.0000000000  2
| 48>   end
| 49>   NewGTO 53
| 50>     s 14
| 51>      1   16900.0000000000      0.0000400000
| 52>      2    2541.3900000000      0.0002939999
| 53>      3     574.4130000000      0.0012139996
| 54>      4     150.9450000000      0.0025959993
| 55>      5      29.1631000000     -0.0536229845
| 56>      6      18.2196000000      0.3439169007
| 57>      7      11.3365000000     -0.3674268939
| 58>      8       6.9240800000     -0.5389038443
| 59>      9       2.5098100000      0.7095667950
| 60>     10       1.3511300000      0.6280608186
| 61>     11       0.6163790000      0.0918419735
| 62>     12       0.3834550000     -0.0122429965
| 63>     13       0.1800560000      0.0028749992
| 64>     14       0.0823270000     -0.0002889999
| 65>     s 14
| 66>      1   16900.0000000000      0.0000190000
| 67>      2    2541.3900000000      0.0001420000
| 68>      3     574.4130000000      0.0005919998
| 69>      4     150.9450000000      0.0012429996
| 70>      5      29.1631000000     -0.0227209933
| 71>      6      18.2196000000      0.1577079532
| 72>      7      11.3365000000     -0.2000919406
| 73>      8       6.9240800000     -0.2161519359
| 74>      9       2.5098100000      0.4134388773
| 75>     10       1.3511300000      0.5345848414
| 76>     11       0.6163790000      0.0923519726
| 77>     12       0.3834550000     -0.5884628254
| 78>     13       0.1800560000     -0.6192808162
| 79>     14       0.0823270000     -0.1513989551
| 80>     s 1
| 81>      1       0.6163790000      1.0000000000
| 82>     s 1
| 83>      1       0.3834550000      1.0000000000
| 84>     s 1
| 85>      1       0.1800560000      1.0000000000
| 86>     s 1
| 87>      1       0.0823270000      1.0000000000
| 88>     s 1
| 89>      1       0.0331000000      1.0000000000
| 90>     p 11
| 91>      1     649.1590000000      0.0000950001
| 92>      2     148.0870000000      0.0006290004
| 93>      3      20.1018000000      0.0453240280
| 94>      4      10.4466000000     -0.2302311423
| 95>      5       6.3588300000     -0.0049600031
| 96>      6       3.0484600000      0.5139273177
| 97>      7       1.5595000000      0.5060933128
| 98>      8       0.7689110000      0.1316590814
| 99>      9       0.3548140000      0.0061250038
|100>     10       0.1547660000      0.0017460011
|101>     11       0.0646990000      0.0000920001
|102>     p 11
|103>      1     649.1590000000     -0.0000320000
|104>      2     148.0870000000     -0.0002530001
|105>      3      20.1018000000     -0.0160980056
|106>      4      10.4466000000      0.0899100312
|107>      5       6.3588300000     -0.0156550054
|108>      6       3.0484600000     -0.2077830721
|109>      7       1.5595000000     -0.2480810861
|110>      8       0.7689110000      0.0403340140
|111>      9       0.3548140000      0.4515731568
|112>     10       0.1547660000      0.5031311747
|113>     11       0.0646990000      0.1755330609
|114>     p 1
|115>      1       0.7689110000      1.0000000000
|116>     p 1
|117>      1       0.3548140000      1.0000000000
|118>     p 1
|119>      1       0.1547660000      1.0000000000
|120>     p 1
|121>      1       0.0646990000      1.0000000000
|122>     p 1
|123>      1       0.0257000000      1.0000000000
|124>     d 12
|125>      1     585.4450000000      0.0000250000
|126>      2     177.4680000000      0.0002309999
|127>      3      69.2193000000      0.0011729994
|128>      4      28.6392000000      0.0055839973
|129>      5      12.7153000000     -0.0238299884
|130>      6       5.4792700000      0.1168139429
|131>      7       3.3549300000      0.2727308668
|132>      8       1.9842300000      0.3401738338
|133>      9       1.1525400000      0.2686988687
|134>     10       0.6510170000      0.1298089366
|135>     11       0.3474450000      0.0330439839
|136>     12       0.1547000000      0.0030669985
|137>     d 1
|138>      1       1.9544000000      1.0000000000
|139>     d 1
|140>      1       0.4543000000      1.0000000000
|141>     d 1
|142>      1       0.2253000000      1.0000000000
|143>     d 1
|144>      1       0.1118000000      1.0000000000
|145>   end
|146>   NewAuxGTO 53
|147>     S 1
|148>      1 1310.72 1.0
|149>     S 1
|150>      1  655.36 1.0
|151>     S 1
|152>      1  327.68 1.0
|153>     S 1
|154>      1  163.84 1.0
|155>     S 1
|156>      1   81.82 1.0
|157>     S 1
|158>      1   40.96 1.0
|159>     S 1
|160>      1   20.48 1.0
|161>     S 1
|162>      1   10.24 1.0
|163>     S 1
|164>      1    5.12 1.0
|165>     S 1
|166>      1    2.56 1.0
|167>     S 1
|168>      1    1.28 1.0
|169>     S 1
|170>      1    0.64 1.0
|171>     S 1
|172>      1    0.32 1.0
|173>     S 1
|174>      1    0.16 1.0
|175>     S 1
|176>      1    0.08 1.0
|177>     S 1
|178>      1    0.04 1.0
|179>     S 1
|180>      1    0.02 1.0
|181>     S 1
|182>      1    0.01 1.0
|183>   end
|184> end
|185>
|186> * xyz 0 2
|187> 53  0.0 0.0 0.0
|188> *
|189>
|190>
|191>                          ****END OF INPUT****

CARTESIAN COORDINATES (ANGSTROEM)
---------------------------------
  I      0.000000    0.000000    0.000000

 Total Charge           Charge          ....    0
 Multiplicity           Mult            ....    2
 Number of Electrons    NEL             ....   25
 Basis Dimension        Dim             ....   53

ORBITAL ENERGIES
----------------

  NO   OCC          E(Eh)            E(eV)
   0   2.0000      -7.745864      -210.7757
   1   2.0000      -5.570725      -151.5871
   2   2.0000      -5.570725      -151.5871
   3   2.0000      -5.570725      -151.5871
   4   2.0000      -2.298191       -62.5369
   5   2.0000      -2.298191       -62.5369
   6   2.0000      -2.298191       -62.5369
   7   2.0000      -2.298191       -62.5369
   8   2.0000      -2.298191       -62.5369
   9   2.0000      -0.876341       -23.8464
  10   1.6667      -0.401740       -10.9319
  11   1.6667      -0.401740       -10.9319
  12   1.6667      -0.401740       -10.9319
  13   0.0000       0.024012         0.6534
  14   0.0000       0.037670         1.0251
  15   0.0000       0.037670         1.0251
  16   0.0000       0.037670         1.0251
  17   0.0000       0.193534         5.2663

FINAL SINGLE POINT ENERGY      -294.655698923826

DIPOLE MOMENT
-------------
                                X             Y             Z
Electronic contribution:     -0.00000       0.00000       0.00000
Nuclear contribution   :      0.00000       0.00000       0.00000
                        -----------------------------------------
Total Dipole Moment    :     -0.00000       0.00000       0.00000
                        -----------------------------------------
Magnitude (a.u.)       :      0.00000
Magnitude (Debye)      :      0.00000

Rotational constants in cm-1:     0.000000     0.000000     0.000000
Rotational constants in MHz :     0.000000     0.000000     0.000000

                             ****ORCA TERMINATED NORMALLY****
TOTAL RUN TIME: 0 days 0 hours 0 minutes 3 seconds 976 msec
