                         Program Version 5.0.4 -  RELEASE  -
|  1> ! RI-MP2-F12 nousesym verytightscf NoPOP PRINTBASIS
|  2>
|  3> %basis
|  4> GTOName = "/work/emmanous/4F12orbitalbasisforTMs_sequel/Cl2/ORCA/with_def2QZVPPJKfit_as_CABS/VDZ-F12/obs.orca"
|  5> GTOAuxJKName = "/work/emmanous/4F12orbitalbasisforTMs_sequel/Cl2/ORCA/with_def2QZVPPJKfit_as_CABS/VDZ-F12/jkbasis.orca"
|  6> GTOAuxCName = "/work/emmanous/4F12orbitalbasisforTMs_sequel/Cl2/ORCA/with_def2QZVPPJKfit_as_CABS/VDZ-F12/mp2fitbasis.orca"
|  7> GTOCABSName = "/work/emmanous/4F12orbitalbasisforTMs_sequel/Cl2/ORCA/with_def2QZVPPJKfit_as_CABS/VDZ-F12/cabs.orca"
|  8> end
|  9>
| 10> %pal nprocs 16
| 11> end
| 12> %maxcore 12000
| 13>
| 14> %method
| 15> F12Gamma 0.9
| 16> end
| 17>
| 18> *xyz 0 1
| 19> Cl 	0.0000 	0.0000 	0.0000
| 20> Cl 	0.0000 	0.0000 	1.9879
| 21> *
| 22>
| 23>                          ****END OF INPUT****

CARTESIAN COORDINATES (ANGSTROEM)
---------------------------------
  Cl     0.000000    0.000000    0.000000
  Cl     0.000000    0.000000    1.987900

 Total Charge           Charge          ....    0
 Multiplicity           Mult            ....    1
 Number of Electrons    NEL             ....   34
 Basis Dimension        Dim             ....   78

ORBITAL ENERGIES
----------------

  NO   OCC          E(Eh)            E(eV)
   0   2.0000    -104.898897     -2854.4441
   1   2.0000    -104.898894     -2854.4440
   2   2.0000     -10.621483      -289.0252
   3   2.0000     -10.621313      -289.0206
   4   2.0000      -8.089379      -220.1232
   5   2.0000      -8.089109      -220.1158
   6   2.0000      -8.084920      -220.0018
   7   2.0000      -8.084920      -220.0018
   8   2.0000      -8.084912      -220.0016
   9   2.0000      -8.084912      -220.0016
  10   2.0000      -1.221974       -33.2516
  11   2.0000      -1.016411       -27.6579
  12   2.0000      -0.600695       -16.3457
  13   2.0000      -0.569885       -15.5074
  14   2.0000      -0.569885       -15.5074
  15   2.0000      -0.443942       -12.0803
  16   2.0000      -0.443942       -12.0803
  17   0.0000       0.022188         0.6038
  18   0.0000       0.107642         2.9291
  19   0.0000       0.108298         2.9470
  20   0.0000       0.110692         3.0121
  21   0.0000       0.110692         3.0121

-------
TIMINGS
-------

MP2 TOTAL ENERGY:     -919.550156948 Eh
FINAL SINGLE POINT ENERGY      -919.550156948194

DIPOLE MOMENT
-------------
                                X             Y             Z
Electronic contribution:      0.00000       0.00000      -0.00000
Nuclear contribution   :      0.00000       0.00000       0.00000
                        -----------------------------------------
Total Dipole Moment    :      0.00000       0.00000      -0.00000
                        -----------------------------------------
Magnitude (a.u.)       :      0.00000
Magnitude (Debye)      :      0.00000

Rotational constants in cm-1:     0.000000     0.240649     0.240649
Rotational constants in MHz :     0.000000  7214.488434  7214.488434

                             ****ORCA TERMINATED NORMALLY****
TOTAL RUN TIME: 0 days 0 hours 0 minutes 13 seconds 827 msec
