                         Program Version 5.0.4 -  RELEASE  -
|  1> ! RI-MP2-F12 nousesym verytightscf NoPOP PRINTBASIS
|  2>
|  3> %basis
|  4> GTOName = "/work/emmanous/4F12orbitalbasisforTMs_sequel/Br2/ORCA/VTZ-PP-F12/obs.orca"
|  5> GTOAuxJKName = "/work/emmanous/4F12orbitalbasisforTMs_sequel/Br2/ORCA/VTZ-PP-F12/jkbasis.orca"
|  6> GTOAuxCName = "/work/emmanous/4F12orbitalbasisforTMs_sequel/Br2/ORCA/VTZ-PP-F12/mp2fitbasis.orca"
|  7> GTOCABSName = "/work/emmanous/4F12orbitalbasisforTMs_sequel/Br2/ORCA/VTZ-PP-F12/jkbasis.orca"
|  8> NewECP Br "SK-MCDHF-RSC" end
|  9> DecontractCABS  false
| 10> end
| 11>
| 12> %pal nprocs 16
| 13> end
| 14> %maxcore 12000
| 15>
| 16> %method
| 17> NewNCore Br 10 end
| 18> F12Gamma 1.0
| 19> end
| 20>
| 21> *xyz 0 1
| 22> Br 	0.0000 	0.0000 	1.1405
| 23> Br 	0.0000 	0.0000 	-1.1405
| 24> *
| 25>
| 26>                          ****END OF INPUT****

CARTESIAN COORDINATES (ANGSTROEM)
---------------------------------
  Br     0.000000    0.000000    1.140500
  Br     0.000000    0.000000   -1.140500

 Total Charge           Charge          ....    0
 Multiplicity           Mult            ....    1
 Number of Electrons    NEL             ....   50
 Basis Dimension        Dim             ....  142

ORBITAL ENERGIES
----------------

  NO   OCC          E(Eh)            E(eV)
   0   2.0000      -9.871937      -268.6291
   1   2.0000      -9.871882      -268.6276
   2   2.0000      -7.626150      -207.5181
   3   2.0000      -7.626007      -207.5142
   4   2.0000      -7.614751      -207.2079
   5   2.0000      -7.614751      -207.2079
   6   2.0000      -7.614735      -207.2075
   7   2.0000      -7.614735      -207.2075
   8   2.0000      -3.179709       -86.5243
   9   2.0000      -3.177272       -86.4580
  10   2.0000      -3.174294       -86.3769
  11   2.0000      -3.174294       -86.3769
  12   2.0000      -3.173501       -86.3553
  13   2.0000      -3.173501       -86.3553
  14   2.0000      -3.161516       -86.0292
  15   2.0000      -3.161516       -86.0292
  16   2.0000      -3.161464       -86.0278
  17   2.0000      -3.161464       -86.0278
  18   2.0000      -1.126546       -30.6549
  19   2.0000      -0.977856       -26.6088
  20   2.0000      -0.533452       -14.5160
  21   2.0000      -0.503882       -13.7113
  22   2.0000      -0.503882       -13.7113
  23   2.0000      -0.404750       -11.0138
  24   2.0000      -0.404750       -11.0138
  25   0.0000      -0.004541        -0.1236
  26   0.0000       0.063768         1.7352
  27   0.0000       0.066008         1.7962
  28   0.0000       0.071455         1.9444
  29   0.0000       0.071455         1.9444

-------
TIMINGS
-------

MP2 TOTAL ENERGY:     -833.577437202 Eh
FINAL SINGLE POINT ENERGY      -833.577437201614

DIPOLE MOMENT
-------------
                                X             Y             Z
Electronic contribution:      0.00000      -0.00000       0.00000
Nuclear contribution   :      0.00000       0.00000       0.00000
                        -----------------------------------------
Total Dipole Moment    :      0.00000      -0.00000       0.00000
                        -----------------------------------------
Magnitude (a.u.)       :      0.00000
Magnitude (Debye)      :      0.00000

Rotational constants in cm-1:     0.000000     0.081102     0.081102
Rotational constants in MHz :     0.000000  2431.365499  2431.365499

                             ****ORCA TERMINATED NORMALLY****
TOTAL RUN TIME: 0 days 0 hours 1 minutes 55 seconds 343 msec
