                         Program Version 5.0.4 -  RELEASE  -
|  1> # input to generate an atomic fitting density for Br
|  2> # this file is used internally by ORCA
|  3> #
|  4> # atomic ground state (S=2): 1s2 2s2 2p6 3s2 3p6 4s2 3d10 4p5
|  5> #
|  6> ! RHF AllowRHF def2-SVP def2/J  NoMulliken NoLoewdin NoMayer NoPrintMOs
|  7>
|  8> %output print[p_atomdensfit] 2 end
|  9>
| 10> %scf
| 11>   guess hcore
| 12>   maxiter 1000
| 13>   maxdisk 500000
| 14>   SCFMode Conventional
| 15>   lshift 1.000000
| 16>   hftyp rohf
| 17>   rohf_case sahf
| 18>   rohf_numop   2
| 19>   rohf_norb[1] 3
| 20>   rohf_nel[1]  5
| 21> end
| 22>
| 23> %basis
| 24>   NewECP 35
| 25>     N_core 10
| 26>     lmax g
| 27>     s 3
| 28>       1      70.0242570000     49.9628340000  2
| 29>       2      31.1784120000    370.0142050000  2
| 30>       3       7.1565930000     10.2414390000  2
| 31>     p 4
| 32>       1      46.7734710000     99.1122440000  2
| 33>       2      46.1841200000    198.2530460000  2
| 34>       3      21.7138580000     28.2617400000  2
| 35>       4      20.9417920000     56.6233660000  2
| 36>     d 6
| 37>       1      50.6988390000    -18.6058530000  2
| 38>       2      50.6447640000    -27.9232800000  2
| 39>       3      15.4475090000     -0.3796930000  2
| 40>       4      15.5002590000     -0.7805830000  2
| 41>       5       2.8003910000      0.0359680000  2
| 42>       6       1.0774800000      0.0943970000  2
| 43>     f 2
| 44>       1      14.4656060000     -1.0912690000  2
| 45>       2      21.2340650000     -2.8876910000  2
| 46>     g 1
| 47>       1       1.0000000000      0.0000000000  2
| 48>   end
| 49>   NewGTO 35
| 50>     s 14
| 51>      1   78967.5000000000      0.0000280000
| 52>      2   11809.7000000000      0.0002140001
| 53>      3    2687.1400000000      0.0010560004
| 54>      4     760.0360000000      0.0036880013
| 55>      5     241.8110000000      0.0079340027
| 56>      6      38.4914000000      0.1528680525
| 57>      7      24.0586000000     -0.2786020958
| 58>      8      14.3587000000     -0.2188500752
| 59>      9       4.3773700000      0.4960051705
| 60>     10       2.3518200000      0.5523411899
| 61>     11       1.2510500000      0.1702270585
| 62>     12       0.5294680000      0.0080250028
| 63>     13       0.2418960000     -0.0000150000
| 64>     14       0.1064860000      0.0002550001
| 65>     s 14
| 66>      1   78967.5000000000     -0.0000110000
| 67>      2   11809.7000000000     -0.0000860000
| 68>      3    2687.1400000000     -0.0004350000
| 69>      4     760.0360000000     -0.0014570001
| 70>      5     241.8110000000     -0.0033810001
| 71>      6      38.4914000000     -0.0576580022
| 72>      7      24.0586000000      0.1123250042
| 73>      8      14.3587000000      0.0756730028
| 74>      9       4.3773700000     -0.2249200084
| 75>     10       2.3518200000     -0.4067380152
| 76>     11       1.2510500000     -0.1443280054
| 77>     12       0.5294680000      0.4999840187
| 78>     13       0.2418960000      0.6082040227
| 79>     14       0.1064860000      0.1662590062
| 80>     s 1
| 81>      1       1.2510500000      1.0000000000
| 82>     s 1
| 83>      1       0.5294680000      1.0000000000
| 84>     s 1
| 85>      1       0.2418960000      1.0000000000
| 86>     s 1
| 87>      1       0.1064860000      1.0000000000
| 88>     s 1
| 89>      1       0.0407000000      1.0000000000
| 90>     p 11
| 91>      1     503.6320000000      0.0004640004
| 92>      2      93.0023000000      0.0054560048
| 93>      3      42.5100000000     -0.0013070012
| 94>      4      26.5778000000     -0.0887240787
| 95>      5       7.5809700000      0.3001462663
| 96>      6       3.8588700000      0.4722004190
| 97>      7       1.9430900000      0.2982912647
| 98>      8       0.9242090000      0.0537770477
| 99>      9       0.4177330000      0.0011570010
|100>     10       0.1808530000      0.0011640010
|101>     11       0.0751540000      0.0000260000
|102>     p 11
|103>      1     503.6320000000     -0.0001290000
|104>      2      93.0023000000     -0.0017469999
|105>      3      42.5100000000      0.0018619999
|106>      4      26.5778000000      0.0234509983
|107>      5       7.5809700000     -0.0989989930
|108>      6       3.8588700000     -0.1577989889
|109>      7       1.9430900000     -0.1232599913
|110>      8       0.9242090000      0.1538349892
|111>      9       0.4177330000      0.4489839684
|112>     10       0.1808530000      0.4388589691
|113>     11       0.0751540000      0.1471479896
|114>     p 1
|115>      1       0.4177330000      1.0000000000
|116>     p 1
|117>      1       0.1808530000      1.0000000000
|118>     p 1
|119>      1       0.0751540000      1.0000000000
|120>     p 1
|121>      1       0.0295000000      1.0000000000
|122>     d 11
|123>      1    1097.7200000000      0.0001110000
|124>      2     332.9290000000      0.0011529999
|125>      3     130.8000000000      0.0076899993
|126>      4      60.1271000000      0.0357149968
|127>      5      29.7430000000      0.0930319916
|128>      6      15.0381000000      0.1885659830
|129>      7       7.7313200000      0.2835429744
|130>      8       3.9619300000      0.3179109713
|131>      9       2.0044900000      0.2481489776
|132>     10       0.9732760000      0.1081839902
|133>     11       0.4146780000      0.0166409985
|134>     d 1
|135>      1       2.3758000000      1.0000000000
|136>     d 1
|137>      1       0.6145000000      1.0000000000
|138>     d 1
|139>      1       0.2954000000      1.0000000000
|140>     d 1
|141>      1       0.1420000000      1.0000000000
|142>   end
|143>   NewAuxGTO 35
|144>     S 1
|145>      1 1310.72 1.0
|146>     S 1
|147>      1  655.36 1.0
|148>     S 1
|149>      1  327.68 1.0
|150>     S 1
|151>      1  163.84 1.0
|152>     S 1
|153>      1   81.82 1.0
|154>     S 1
|155>      1   40.96 1.0
|156>     S 1
|157>      1   20.48 1.0
|158>     S 1
|159>      1   10.24 1.0
|160>     S 1
|161>      1    5.12 1.0
|162>     S 1
|163>      1    2.56 1.0
|164>     S 1
|165>      1    1.28 1.0
|166>     S 1
|167>      1    0.64 1.0
|168>     S 1
|169>      1    0.32 1.0
|170>     S 1
|171>      1    0.16 1.0
|172>     S 1
|173>      1    0.08 1.0
|174>     S 1
|175>      1    0.04 1.0
|176>     S 1
|177>      1    0.02 1.0
|178>     S 1
|179>      1    0.01 1.0
|180>   end
|181> end
|182>
|183> * xyz 0 2
|184> 35  0.0 0.0 0.0
|185> *
|186>
|187>
|188>                          ****END OF INPUT****

CARTESIAN COORDINATES (ANGSTROEM)
---------------------------------
  Br     0.000000    0.000000    0.000000

 Total Charge           Charge          ....    0
 Multiplicity           Mult            ....    2
 Number of Electrons    NEL             ....   25
 Basis Dimension        Dim             ....   50

ORBITAL ENERGIES
----------------

  NO   OCC          E(Eh)            E(eV)
   0   2.0000     -10.215802      -277.9861
   1   2.0000      -7.975080      -217.0130
   2   2.0000      -7.950304      -216.3388
   3   2.0000      -7.950301      -216.3387
   4   2.0000      -3.528166       -96.0063
   5   2.0000      -3.519550       -95.7718
   6   2.0000      -3.519547       -95.7717
   7   2.0000      -3.493604       -95.0658
   8   2.0000      -3.493603       -95.0658
   9   2.0000      -1.277541       -34.7637
  10   1.6667      -0.690731       -18.7957
  11   1.6667      -0.690720       -18.7954
  12   1.6667      -0.149194        -4.0598
  13   0.0000      -0.405498       -11.0342
  14   0.0000       0.008404         0.2287
  15   0.0000       0.012870         0.3502
  16   0.0000       0.012872         0.3503
  17   0.0000       0.134090         3.6488

FINAL SINGLE POINT ENERGY      -414.852231918056

DIPOLE MOMENT
-------------
                                X             Y             Z
Electronic contribution:      0.00000       0.00000      -0.00000
Nuclear contribution   :      0.00000       0.00000       0.00000
                        -----------------------------------------
Total Dipole Moment    :      0.00000       0.00000      -0.00000
                        -----------------------------------------
Magnitude (a.u.)       :      0.00000
Magnitude (Debye)      :      0.00000

Rotational constants in cm-1:     0.000000     0.000000     0.000000
Rotational constants in MHz :     0.000000     0.000000     0.000000

                             ****ORCA TERMINATED NORMALLY****
TOTAL RUN TIME: 0 days 0 hours 0 minutes 2 seconds 749 msec
