                         Program Version 5.0.4 -  RELEASE  -
|  1> ! RI-MP2-F12 nousesym verytightscf NoPOP PRINTBASIS
|  2>
|  3> %basis
|  4> GTOName = "/work/emmanous/4F12orbitalbasisforTMs_sequel/Cl2/ORCA/with_def2QZVPPJKfit_as_CABS/VTZ-F12/obs.orca"
|  5> GTOAuxJKName = "/work/emmanous/4F12orbitalbasisforTMs_sequel/Cl2/ORCA/with_def2QZVPPJKfit_as_CABS/VTZ-F12/jkbasis.orca"
|  6> GTOAuxCName = "/work/emmanous/4F12orbitalbasisforTMs_sequel/Cl2/ORCA/with_def2QZVPPJKfit_as_CABS/VTZ-F12/mp2fitbasis.orca"
|  7> GTOCABSName = "/work/emmanous/4F12orbitalbasisforTMs_sequel/Cl2/ORCA/with_def2QZVPPJKfit_as_CABS/VTZ-F12/cabs.orca"
|  8> end
|  9>
| 10> %pal nprocs 16
| 11> end
| 12> %maxcore 12000
| 13>
| 14> %method
| 15> F12Gamma 1.0
| 16> end
| 17>
| 18> *xyz 0 1
| 19> Cl 	0.0000 	0.0000 	0.0000
| 20> Cl 	0.0000 	0.0000 	1.9879
| 21> *
| 22>
| 23>                          ****END OF INPUT****

CARTESIAN COORDINATES (ANGSTROEM)
---------------------------------
  Cl     0.000000    0.000000    0.000000
  Cl     0.000000    0.000000    1.987900

 Total Charge           Charge          ....    0
 Multiplicity           Mult            ....    1
 Number of Electrons    NEL             ....   34
 Basis Dimension        Dim             ....  124

ORBITAL ENERGIES
----------------

  NO   OCC          E(Eh)            E(eV)
   0   2.0000    -104.897905     -2854.4171
   1   2.0000    -104.897903     -2854.4171
   2   2.0000     -10.619894      -288.9820
   3   2.0000     -10.619724      -288.9774
   4   2.0000      -8.086982      -220.0580
   5   2.0000      -8.086709      -220.0505
   6   2.0000      -8.084290      -219.9847
   7   2.0000      -8.084290      -219.9847
   8   2.0000      -8.084283      -219.9845
   9   2.0000      -8.084283      -219.9845
  10   2.0000      -1.219002       -33.1707
  11   2.0000      -1.014802       -27.6142
  12   2.0000      -0.598373       -16.2826
  13   2.0000      -0.570091       -15.5130
  14   2.0000      -0.570091       -15.5130
  15   2.0000      -0.443749       -12.0750
  16   2.0000      -0.443749       -12.0750
  17   0.0000       0.024522         0.6673
  18   0.0000       0.089331         2.4308
  19   0.0000       0.094096         2.5605
  20   0.0000       0.094545         2.5727
  21   0.0000       0.094545         2.5727

-------
TIMINGS
-------

MP2 TOTAL ENERGY:     -919.462938547 Eh
FINAL SINGLE POINT ENERGY      -919.462938547404

DIPOLE MOMENT
-------------
                                X             Y             Z
Electronic contribution:      0.00000      -0.00000      -0.00000
Nuclear contribution   :      0.00000       0.00000       0.00000
                        -----------------------------------------
Total Dipole Moment    :      0.00000      -0.00000      -0.00000
                        -----------------------------------------
Magnitude (a.u.)       :      0.00000
Magnitude (Debye)      :      0.00000

Rotational constants in cm-1:     0.000000     0.240649     0.240649
Rotational constants in MHz :     0.000000  7214.488434  7214.488434

                             ****ORCA TERMINATED NORMALLY****
TOTAL RUN TIME: 0 days 0 hours 0 minutes 18 seconds 504 msec
