                         Program Version 5.0.4 -  RELEASE  -
|  1> ! RI-MP2-F12 nousesym verytightscf NoPOP PRINTBASIS
|  2>
|  3> %basis
|  4> GTOName = "/work/emmanous/4F12orbitalbasisforTMs_sequel/I2/VQZ-PP-F12/ORCA/obs.orca"
|  5> GTOAuxJKName = "/work/emmanous/4F12orbitalbasisforTMs_sequel/I2/VQZ-PP-F12/ORCA/jkbasis.orca"
|  6> GTOAuxCName = "/work/emmanous/4F12orbitalbasisforTMs_sequel/I2/VQZ-PP-F12/ORCA/mp2fitbasis.orca"
|  7> GTOCABSName = "/work/emmanous/4F12orbitalbasisforTMs_sequel/I2/VQZ-PP-F12/ORCA/jkbasis.orca"
|  8> NewECP I "SK-MCDHF-RSC" end
|  9> DecontractCABS  false
| 10> end
| 11>
| 12> %pal nprocs 16
| 13> end
| 14> %maxcore 2000
| 15>
| 16> %method
| 17> NewNCore I 28 end
| 18> F12Gamma 1.0
| 19> end
| 20>
| 21> *xyz 0 1
| 22> I 	0.0000 	0.0000 	0.0000
| 23> I 	0.0000 	0.0000  2.6655
| 24> *
| 25>
| 26>                          ****END OF INPUT****

CARTESIAN COORDINATES (ANGSTROEM)
---------------------------------
  I      0.000000    0.000000    0.000000
  I      0.000000    0.000000    2.665500

 Total Charge           Charge          ....    0
 Multiplicity           Mult            ....    1
 Number of Electrons    NEL             ....   50
 Basis Dimension        Dim             ....  216

ORBITAL ENERGIES
----------------

  NO   OCC          E(Eh)            E(eV)
   0   2.0000      -7.753295      -210.9779
   1   2.0000      -7.753263      -210.9770
   2   2.0000      -5.586386      -152.0133
   3   2.0000      -5.586122      -152.0061
   4   2.0000      -5.574374      -151.6864
   5   2.0000      -5.574374      -151.6864
   6   2.0000      -5.574341      -151.6855
   7   2.0000      -5.574341      -151.6855
   8   2.0000      -2.318695       -63.0949
   9   2.0000      -2.312681       -62.9312
  10   2.0000      -2.311364       -62.8954
  11   2.0000      -2.311364       -62.8954
  12   2.0000      -2.309412       -62.8423
  13   2.0000      -2.309412       -62.8423
  14   2.0000      -2.296801       -62.4991
  15   2.0000      -2.296801       -62.4991
  16   2.0000      -2.296662       -62.4954
  17   2.0000      -2.296662       -62.4954
  18   2.0000      -0.961094       -26.1527
  19   2.0000      -0.841944       -22.9105
  20   2.0000      -0.468309       -12.7433
  21   2.0000      -0.440028       -11.9738
  22   2.0000      -0.440028       -11.9738
  23   2.0000      -0.360411        -9.8073
  24   2.0000      -0.360411        -9.8073
  25   0.0000      -0.019383        -0.5274
  26   0.0000       0.045408         1.2356
  27   0.0000       0.047861         1.3024
  28   0.0000       0.053865         1.4657
  29   0.0000       0.053865         1.4657

-------
TIMINGS
-------

MP2 TOTAL ENERGY:     -591.163654111 Eh
FINAL SINGLE POINT ENERGY      -591.163654111066

DIPOLE MOMENT
-------------
                                X             Y             Z
Electronic contribution:      0.00000       0.00000      -0.00000
Nuclear contribution   :      0.00000       0.00000       0.00000
                        -----------------------------------------
Total Dipole Moment    :      0.00000       0.00000      -0.00000
                        -----------------------------------------
Magnitude (a.u.)       :      0.00000
Magnitude (Debye)      :      0.00000

Rotational constants in cm-1:     0.000000     0.037395     0.037395
Rotational constants in MHz :     0.000000  1121.059346  1121.059346

                             ****ORCA TERMINATED NORMALLY****
TOTAL RUN TIME: 0 days 0 hours 6 minutes 29 seconds 56 msec
