                         Program Version 5.0.4 -  RELEASE  -
|  1> # input to generate an atomic fitting density for I
|  2> # this file is used internally by ORCA
|  3> #
|  4> # atomic ground state (S=2): 1s2 2s2 2p6 3s2 3p6 4s2 3d10 4p6 5s2 4d10 5p5
|  5> #
|  6> ! RHF AllowRHF def2-SVP def2/J  NoMulliken NoLoewdin NoMayer NoPrintMOs
|  7>
|  8> %output print[p_atomdensfit] 2 end
|  9>
| 10> %scf
| 11>   guess hcore
| 12>   maxiter 1000
| 13>   maxdisk 500000
| 14>   SCFMode Conventional
| 15>   lshift 1.000000
| 16>   hftyp rohf
| 17>   rohf_case sahf
| 18>   rohf_numop   2
| 19>   rohf_norb[1] 3
| 20>   rohf_nel[1]  5
| 21> end
| 22>
| 23> %basis
| 24>   NewECP 53
| 25>     N_core 28
| 26>     lmax g
| 27>     s 3
| 28>       1      40.0333760000     49.9896490000  2
| 29>       2      17.3005760000    281.0065560000  2
| 30>       3       8.8517200000     61.4167390000  2
| 31>     p 4
| 32>       1      15.7201410000     67.4162390000  2
| 33>       2      15.2082220000    134.8076960000  2
| 34>       3       8.2941860000     14.5665480000  2
| 35>       4       7.7539490000     28.9684220000  2
| 36>     d 4
| 37>       1      13.8177510000     35.5387560000  2
| 38>       2      13.5878050000     53.3397590000  2
| 39>       3       6.9476300000      9.7164660000  2
| 40>       4       6.9600990000     14.9775000000  2
| 41>     f 4
| 42>       1      18.5229500000    -20.1766180000  2
| 43>       2      18.2510350000    -26.0880770000  2
| 44>       3       7.5579010000     -0.2204340000  2
| 45>       4       7.5974040000     -0.2216460000  2
| 46>     g 1
| 47>       1       1.0000000000      0.0000000000  2
| 48>   end
| 49>   NewGTO 53
| 50>     s 16
| 51>      1   42976.6000000000      0.0000130000
| 52>      2    6439.0100000000      0.0000970001
| 53>      3    1455.7800000000      0.0004660003
| 54>      4     405.3610000000      0.0014410010
| 55>      5     116.9800000000      0.0026740019
| 56>      6      29.6326000000     -0.0581210405
| 57>      7      18.5100000000      0.3457592407
| 58>      8      11.5620000000     -0.3622722522
| 59>      9       6.5950700000     -0.6346744418
| 60>     10       4.0534000000      0.2236671557
| 61>     11       2.1409000000      0.7832735453
| 62>     12       1.1816400000      0.4525213150
| 63>     13       0.6003720000      0.0530480369
| 64>     14       0.3199650000     -0.0008910006
| 65>     15       0.1587690000      0.0009600007
| 66>     16       0.0754510000     -0.0000250000
| 67>     s 1
| 68>      1       1.1816400000      1.0000000000
| 69>     s 1
| 70>      1       0.6003720000      1.0000000000
| 71>     s 1
| 72>      1       0.3199650000      1.0000000000
| 73>     s 16
| 74>      1   42976.6000000000     -0.0000060000
| 75>      2    6439.0100000000     -0.0000470000
| 76>      3    1455.7800000000     -0.0002230000
| 77>      4     405.3610000000     -0.0007120001
| 78>      5     116.9800000000     -0.0012340002
| 79>      6      29.6326000000      0.0241210046
| 80>      7      18.5100000000     -0.1556420299
| 81>      8      11.5620000000      0.1885390363
| 82>      9       6.5950700000      0.2742270528
| 83>     10       4.0534000000     -0.1247080240
| 84>     11       2.1409000000     -0.4731900910
| 85>     12       1.1816400000     -0.4631160891
| 86>     13       0.6003720000      0.0997240192
| 87>     14       0.3199650000      0.6050161164
| 88>     15       0.1587690000      0.5176680996
| 89>     16       0.0754510000      0.1076690207
| 90>     s 1
| 91>      1       0.1587690000      1.0000000000
| 92>     s 1
| 93>      1       0.0754510000      1.0000000000
| 94>     s 1
| 95>      1       0.0305000000      1.0000000000
| 96>     p 13
| 97>      1     569.6430000000      0.0001150000
| 98>      2     131.4960000000      0.0007170002
| 99>      3      32.3843000000     -0.0020270005
|100>      4      20.2254000000      0.0534360136
|101>      5      11.2381000000     -0.1922640490
|102>      6       6.6279400000     -0.0952150243
|103>      7       3.6478000000      0.3658080932
|104>      8       1.9885300000      0.5364311367
|105>      9       1.0636700000      0.2650080675
|106>     10       0.5243030000      0.0360390092
|107>     11       0.2553820000      0.0013420003
|108>     12       0.1197550000      0.0010520003
|109>     13       0.0541990000      0.0000610000
|110>     p 1
|111>      1       1.0636700000      1.0000000000
|112>     p 1
|113>      1       0.5243030000      1.0000000000
|114>     p 1
|115>      1       0.2553820000      1.0000000000
|116>     p 13
|117>      1     569.6430000000     -0.0000430000
|118>      2     131.4960000000     -0.0002599999
|119>      3      32.3843000000      0.0003439999
|120>      4      20.2254000000     -0.0182309947
|121>      5      11.2381000000      0.0740139786
|122>      6       6.6279400000      0.0220159936
|123>      7       3.6478000000     -0.1478729572
|124>      8       1.9885300000     -0.2411659303
|125>      9       1.0636700000     -0.1154819666
|126>     10       0.5243030000      0.2394929308
|127>     11       0.2553820000      0.4766308622
|128>     12       0.1197550000      0.3830208893
|129>     13       0.0541990000      0.1007049709
|130>     p 1
|131>      1       0.1197550000      1.0000000000
|132>     p 1
|133>      1       0.0541990000      1.0000000000
|134>     p 1
|135>      1       0.0231000000      1.0000000000
|136>     d 1
|137>      1       1.9575000000      1.0000000000
|138>     d 13
|139>      1     578.8080000000      0.0000260000
|140>      2     175.8530000000      0.0002340000
|141>      3      68.8292000000      0.0011769998
|142>      4      28.7354000000      0.0054619989
|143>      5      12.3166000000     -0.0275299946
|144>      6       7.6114300000      0.0209759959
|145>      7       4.7045200000      0.1768419654
|146>      8       2.7946500000      0.3194789374
|147>      9       1.6164400000      0.3387309337
|148>     10       0.9142110000      0.2179659573
|149>     11       0.5047300000      0.0781039847
|150>     12       0.2762800000      0.0142499972
|151>     13       0.1392000000      0.0018029996
|152>     d 1
|153>      1       0.5141000000      1.0000000000
|154>     d 1
|155>      1       0.2969000000      1.0000000000
|156>     d 1
|157>      1       0.1715000000      1.0000000000
|158>     d 1
|159>      1       0.0990000000      1.0000000000
|160>   end
|161>   NewAuxGTO 53
|162>     S 1
|163>      1 1310.72 1.0
|164>     S 1
|165>      1  655.36 1.0
|166>     S 1
|167>      1  327.68 1.0
|168>     S 1
|169>      1  163.84 1.0
|170>     S 1
|171>      1   81.82 1.0
|172>     S 1
|173>      1   40.96 1.0
|174>     S 1
|175>      1   20.48 1.0
|176>     S 1
|177>      1   10.24 1.0
|178>     S 1
|179>      1    5.12 1.0
|180>     S 1
|181>      1    2.56 1.0
|182>     S 1
|183>      1    1.28 1.0
|184>     S 1
|185>      1    0.64 1.0
|186>     S 1
|187>      1    0.32 1.0
|188>     S 1
|189>      1    0.16 1.0
|190>     S 1
|191>      1    0.08 1.0
|192>     S 1
|193>      1    0.04 1.0
|194>     S 1
|195>      1    0.02 1.0
|196>     S 1
|197>      1    0.01 1.0
|198>   end
|199> end
|200>
|201> * xyz 0 2
|202> 53  0.0 0.0 0.0
|203> *
|204>
|205>
|206>                          ****END OF INPUT****

CARTESIAN COORDINATES (ANGSTROEM)
---------------------------------
  I      0.000000    0.000000    0.000000

 Total Charge           Charge          ....    0
 Multiplicity           Mult            ....    2
 Number of Electrons    NEL             ....   25
 Basis Dimension        Dim             ....   62

ORBITAL ENERGIES
----------------

  NO   OCC          E(Eh)            E(eV)
   0   2.0000      -7.745967      -210.7785
   1   2.0000      -5.570824      -151.5898
   2   2.0000      -5.570824      -151.5898
   3   2.0000      -5.570824      -151.5898
   4   2.0000      -2.298292       -62.5397
   5   2.0000      -2.298292       -62.5397
   6   2.0000      -2.298292       -62.5397
   7   2.0000      -2.298292       -62.5397
   8   2.0000      -2.298292       -62.5397
   9   2.0000      -0.876366       -23.8471
  10   1.6667      -0.401794       -10.9334
  11   1.6667      -0.401794       -10.9334
  12   1.6667      -0.401794       -10.9334
  13   0.0000       0.018934         0.5152
  14   0.0000       0.029670         0.8074
  15   0.0000       0.029670         0.8074
  16   0.0000       0.029670         0.8074
  17   0.0000       0.163717         4.4550

FINAL SINGLE POINT ENERGY      -294.655733623416

DIPOLE MOMENT
-------------
                                X             Y             Z
Electronic contribution:      0.00000      -0.00000       0.00000
Nuclear contribution   :      0.00000       0.00000       0.00000
                        -----------------------------------------
Total Dipole Moment    :      0.00000      -0.00000       0.00000
                        -----------------------------------------
Magnitude (a.u.)       :      0.00000
Magnitude (Debye)      :      0.00000

Rotational constants in cm-1:     0.000000     0.000000     0.000000
Rotational constants in MHz :     0.000000     0.000000     0.000000

                             ****ORCA TERMINATED NORMALLY****
TOTAL RUN TIME: 0 days 0 hours 0 minutes 6 seconds 119 msec
