 Gaussian 16, Revision C.01,
 Gaussian 16:  ES64L-G16RevC.01  3-Jul-2019

 --------------------------
 #n CCSD(T)/aug-cc-pVTZ Opt
 --------------------------

 -----
 Title
 -----
 Symbolic Z-matrix:
 Charge =  0 Multiplicity = 1

 SCF Done:  E(RHF) =  -918.999732056     A.U. after    9 cycles
 E2 =    -0.3872791373D+00 EUMP2 =    -0.91938701119377D+03
 CCSD(T)= -0.91943772118D+03
 SCF Done:  E(RHF) =  -918.999729487     A.U. after    5 cycles
 E2 =    -0.3872805953D+00 EUMP2 =    -0.91938701008189D+03
 CCSD(T)= -0.91943772176D+03
 SCF Done:  E(RHF) =  -918.999734617     A.U. after    5 cycles
 E2 =    -0.3872776817D+00 EUMP2 =    -0.91938701229841D+03
 CCSD(T)= -0.91943772061D+03
 SCF Done:  E(RHF) =  -918.999477794     A.U. after    6 cycles
 E2 =    -0.3874064695D+00 EUMP2 =    -0.91938688426348D+03
 CCSD(T)= -0.91943773888D+03
 SCF Done:  E(RHF) =  -918.999474411     A.U. after    4 cycles
 E2 =    -0.3874079918D+00 EUMP2 =    -0.91938688240272D+03
 CCSD(T)= -0.91943773872D+03
 SCF Done:  E(RHF) =  -918.999537917     A.U. after    6 cycles
 E2 =    -0.3873788326D+00 EUMP2 =    -0.91938691674970D+03
 CCSD(T)= -0.91943774036D+03
 SCF Done:  E(RHF) =  -918.999534706     A.U. after    4 cycles
 E2 =    -0.3873803302D+00 EUMP2 =    -0.91938691503589D+03
 CCSD(T)= -0.91943774034D+03

                         Standard orientation:
 ---------------------------------------------------------------------
 Center     Atomic      Atomic             Coordinates (Angstroms)
 Number     Number       Type             X           Y           Z
 ---------------------------------------------------------------------
      1         17           0        0.000000    0.000000    1.009714
      2         17           0        0.000000    0.000000   -1.009714
 ---------------------------------------------------------------------

 The electronic state is 1-SGG.
 Alpha  occ. eigenvalues -- -104.90244-104.90243 -10.62274 -10.62259  -8.08973
 Alpha  occ. eigenvalues --   -8.08952  -8.08662  -8.08662  -8.08662  -8.08662
 Alpha  occ. eigenvalues --   -1.21096  -1.01894  -0.59211  -0.56641  -0.56641
 Alpha  occ. eigenvalues --   -0.44753  -0.44753
 Alpha virt. eigenvalues --    0.01719   0.09702   0.10789   0.11150   0.11150
 Alpha virt. eigenvalues --    0.13903   0.13903   0.14041   0.25245   0.29516
 Alpha virt. eigenvalues --    0.29516   0.33329   0.33329   0.40470   0.41284

 Mulliken charges:
               1
     1  Cl  -0.000000
     2  Cl  -0.000000
 Sum of Mulliken charges =  -0.00000

 Dipole moment (field-independent basis, Debye):
    X=             -0.0000    Y=              0.0000    Z=             -0.0000  Tot=              0.0000
 Quadrupole moment (field-independent basis, Debye-Ang):
   XX=            -25.5537   YY=            -25.5537   ZZ=            -22.3264
   XY=              0.0000   XZ=              0.0000   YZ=              0.0000

 CSD=-919.4186077\CCSD(T)=-919.4377404\RMSD=1.767e-09\RMSF=5.845e-05\PG
 Normal termination of Gaussian 16 at Thu Jul 13 08:16:55 2023.
