 Gaussian 16, Revision C.01,
 Gaussian 16:  ES64L-G16RevC.01  3-Jul-2019

 ----------------------
 #n B3LYP/def2QZVPP Opt
 ----------------------

 -----
 Title
 -----
 Symbolic Z-matrix:
 Charge =  0 Multiplicity = 1

 SCF Done:  E(RB3LYP) =  -920.452610013     A.U. after   10 cycles
 SCF Done:  E(RB3LYP) =  -920.452611924     A.U. after    5 cycles
 SCF Done:  E(RB3LYP) =  -920.452612330     A.U. after    5 cycles
 Optimization completed.
    -- Stationary point found.

                         Standard orientation:
 ---------------------------------------------------------------------
 Center     Atomic      Atomic             Coordinates (Angstroms)
 Number     Number       Type             X           Y           Z
 ---------------------------------------------------------------------
      1         17           0        0.000000    0.000000    1.004703
      2         17           0        0.000000    0.000000   -1.004703
 ---------------------------------------------------------------------

 The electronic state is 1-SGG.
 Alpha  occ. eigenvalues -- -101.58582-101.58582  -9.51381  -9.51376  -7.27934
 Alpha  occ. eigenvalues --   -7.27919  -7.26575  -7.26575  -7.26574  -7.26574
 Alpha  occ. eigenvalues --   -0.93469  -0.77439  -0.47554  -0.41192  -0.41192
 Alpha  occ. eigenvalues --   -0.31215  -0.31215
 Alpha virt. eigenvalues --   -0.13121   0.13309   0.14015   0.16107   0.16107
 Alpha virt. eigenvalues --    0.19281   0.21009   0.21009   0.22391   0.22391
 Alpha virt. eigenvalues --    0.24808   0.24808   0.35867   0.35867   0.40631

 Mulliken charges:
               1
     1  Cl  -0.000000
     2  Cl  -0.000000
 Sum of Mulliken charges =  -0.00000

 Dipole moment (field-independent basis, Debye):
    X=             -0.0000    Y=              0.0000    Z=             -0.0000  Tot=              0.0000
 Quadrupole moment (field-independent basis, Debye-Ang):
   XX=            -25.4230   YY=            -25.4230   ZZ=            -22.2653
   XY=              0.0000   XZ=              0.0000   YZ=              0.0000

 Normal termination of Gaussian 16 at Thu Jul 13 08:13:49 2023.
