                         Program Version 5.0.4 -  RELEASE  -
|  1> ! RI-MP2-F12 nousesym verytightscf NoPOP PRINTBASIS
|  2>
|  3> %basis
|  4> GTOName = "/work/emmanous/4F12orbitalbasisforTMs_sequel/Br2/ORCA/VDZ-PP-F12/obs.orca"
|  5> GTOAuxJKName = "/work/emmanous/4F12orbitalbasisforTMs_sequel/Br2/ORCA/VDZ-PP-F12/jkbasis.orca"
|  6> GTOAuxCName = "/work/emmanous/4F12orbitalbasisforTMs_sequel/Br2/ORCA/VDZ-PP-F12/mp2fitbasis.orca"
|  7> GTOCABSName = "/work/emmanous/4F12orbitalbasisforTMs_sequel/Br2/ORCA/VDZ-PP-F12/jkbasis.orca"
|  8> NewECP Br "SK-MCDHF-RSC" end
|  9> DecontractCABS  false
| 10> end
| 11>
| 12> %pal nprocs 16
| 13> end
| 14> %maxcore 12000
| 15>
| 16> %method
| 17> NewNCore Br 10 end
| 18> F12Gamma 1.0
| 19> end
| 20>
| 21> *xyz 0 1
| 22> Br 	0.0000 	0.0000 	1.1405
| 23> Br 	0.0000 	0.0000 	-1.1405
| 24> *
| 25>
| 26>                          ****END OF INPUT****

CARTESIAN COORDINATES (ANGSTROEM)
---------------------------------
  Br     0.000000    0.000000    1.140500
  Br     0.000000    0.000000   -1.140500

 Total Charge           Charge          ....    0
 Multiplicity           Mult            ....    1
 Number of Electrons    NEL             ....   50
 Basis Dimension        Dim             ....   96

ORBITAL ENERGIES
----------------

  NO   OCC          E(Eh)            E(eV)
   0   2.0000      -9.873415      -268.6693
   1   2.0000      -9.873360      -268.6678
   2   2.0000      -7.629067      -207.5975
   3   2.0000      -7.628929      -207.5937
   4   2.0000      -7.615790      -207.2362
   5   2.0000      -7.615790      -207.2362
   6   2.0000      -7.615774      -207.2358
   7   2.0000      -7.615774      -207.2358
   8   2.0000      -3.182236       -86.5930
   9   2.0000      -3.179821       -86.5273
  10   2.0000      -3.176370       -86.4334
  11   2.0000      -3.176370       -86.4334
  12   2.0000      -3.175592       -86.4122
  13   2.0000      -3.175592       -86.4122
  14   2.0000      -3.162317       -86.0510
  15   2.0000      -3.162317       -86.0510
  16   2.0000      -3.162266       -86.0496
  17   2.0000      -3.162266       -86.0496
  18   2.0000      -1.129139       -30.7254
  19   2.0000      -0.979467       -26.6527
  20   2.0000      -0.536253       -14.5922
  21   2.0000      -0.503467       -13.7000
  22   2.0000      -0.503467       -13.7000
  23   2.0000      -0.405090       -11.0231
  24   2.0000      -0.405090       -11.0231
  25   0.0000      -0.007532        -0.2049
  26   0.0000       0.079877         2.1736
  27   0.0000       0.098788         2.6882
  28   0.0000       0.108899         2.9633
  29   0.0000       0.108899         2.9633

-------
TIMINGS
-------

MP2 TOTAL ENERGY:     -833.321461797 Eh
FINAL SINGLE POINT ENERGY      -833.321461796823

DIPOLE MOMENT
-------------
                                X             Y             Z
Electronic contribution:      0.00000       0.00000       0.00000
Nuclear contribution   :      0.00000       0.00000       0.00000
                        -----------------------------------------
Total Dipole Moment    :      0.00000       0.00000       0.00000
                        -----------------------------------------
Magnitude (a.u.)       :      0.00000
Magnitude (Debye)      :      0.00000

Rotational constants in cm-1:     0.000000     0.081102     0.081102
Rotational constants in MHz :     0.000000  2431.365499  2431.365499

                             ****ORCA TERMINATED NORMALLY****
TOTAL RUN TIME: 0 days 0 hours 1 minutes 10 seconds 736 msec
