                         Program Version 5.0.4 -  RELEASE  -
|  1> # input to generate an atomic fitting density for Br
|  2> # this file is used internally by ORCA
|  3> #
|  4> # atomic ground state (S=2): 1s2 2s2 2p6 3s2 3p6 4s2 3d10 4p5
|  5> #
|  6> ! RHF AllowRHF def2-SVP def2/J  NoMulliken NoLoewdin NoMayer NoPrintMOs
|  7>
|  8> %output print[p_atomdensfit] 2 end
|  9>
| 10> %scf
| 11>   guess hcore
| 12>   maxiter 1000
| 13>   maxdisk 500000
| 14>   SCFMode Conventional
| 15>   lshift 1.000000
| 16>   hftyp rohf
| 17>   rohf_case sahf
| 18>   rohf_numop   2
| 19>   rohf_norb[1] 3
| 20>   rohf_nel[1]  5
| 21> end
| 22>
| 23> %basis
| 24>   NewECP 35
| 25>     N_core 10
| 26>     lmax g
| 27>     s 3
| 28>       1      70.0242570000     49.9628340000  2
| 29>       2      31.1784120000    370.0142050000  2
| 30>       3       7.1565930000     10.2414390000  2
| 31>     p 4
| 32>       1      46.7734710000     99.1122440000  2
| 33>       2      46.1841200000    198.2530460000  2
| 34>       3      21.7138580000     28.2617400000  2
| 35>       4      20.9417920000     56.6233660000  2
| 36>     d 6
| 37>       1      50.6988390000    -18.6058530000  2
| 38>       2      50.6447640000    -27.9232800000  2
| 39>       3      15.4475090000     -0.3796930000  2
| 40>       4      15.5002590000     -0.7805830000  2
| 41>       5       2.8003910000      0.0359680000  2
| 42>       6       1.0774800000      0.0943970000  2
| 43>     f 2
| 44>       1      14.4656060000     -1.0912690000  2
| 45>       2      21.2340650000     -2.8876910000  2
| 46>     g 1
| 47>       1       1.0000000000      0.0000000000  2
| 48>   end
| 49>   NewGTO 35
| 50>     s 10
| 51>      1    9659.3900000000      0.0003710003
| 52>      2    1455.9600000000      0.0025710021
| 53>      3     325.9140000000      0.0084850069
| 54>      4      46.5657000000      0.0782220637
| 55>      5      18.2469000000     -0.3971493235
| 56>      6       3.8020100000      0.6858645586
| 57>      7       1.7863200000      0.4868193965
| 58>      8       0.6027140000      0.0349130284
| 59>      9       0.2840140000     -0.0065730054
| 60>     10       0.1202710000      0.0016420013
| 61>     s 10
| 62>      1    9659.3900000000     -0.0001520000
| 63>      2    1455.9600000000     -0.0010079999
| 64>      3     325.9140000000     -0.0036089998
| 65>      4      46.5657000000     -0.0278719981
| 66>      5      18.2469000000      0.1513169897
| 67>      6       3.8020100000     -0.3514969760
| 68>      7       1.7863200000     -0.4107029720
| 69>      8       0.6027140000      0.3473159763
| 70>      9       0.2840140000      0.6754909540
| 71>     10       0.1202710000      0.2440079834
| 72>     s 1
| 73>      1       0.6027140000      1.0000000000
| 74>     s 1
| 75>      1       0.2840140000      1.0000000000
| 76>     s 1
| 77>      1       0.1202710000      1.0000000000
| 78>     s 1
| 79>      1       0.0445000000      1.0000000000
| 80>     p 9
| 81>      1     492.1870000000      0.0004720002
| 82>      2      92.3642000000      0.0054940021
| 83>      3      27.0718000000     -0.0880300333
| 84>      4       7.2653900000      0.3434851298
| 85>      5       3.4848100000      0.5102081927
| 86>      6       1.6404800000      0.2486310939
| 87>      7       0.6485700000      0.0222010084
| 88>      8       0.2564070000     -0.0004190002
| 89>      9       0.0953040000      0.0006560002
| 90>     p 9
| 91>      1     492.1870000000     -0.0001580000
| 92>      2      92.3642000000     -0.0013440002
| 93>      3      27.0718000000      0.0246160036
| 94>      4       7.2653900000     -0.1125320167
| 95>      5       3.4848100000     -0.1797750266
| 96>      6       1.6404800000     -0.0736610109
| 97>      7       0.6485700000      0.3487340517
| 98>      8       0.2564070000      0.5579480827
| 99>      9       0.0953040000      0.2664560395
|100>     p 1
|101>      1       0.7666000000      1.0000000000
|102>     p 1
|103>      1       0.1182000000      1.0000000000
|104>     p 1
|105>      1       0.0396000000      1.0000000000
|106>     d 8
|107>      1     338.9960000000      0.0015239989
|108>      2     103.2170000000      0.0156729884
|109>      3      42.3638000000      0.0723999463
|110>      4      18.4356000000      0.1863028618
|111>      5       8.3725400000      0.3238807598
|112>      6       3.8022200000      0.3745337222
|113>      7       1.6867700000      0.2574178091
|114>      8       0.6775200000      0.0680509495
|115>     d 1
|116>      1       2.1087000000      1.0000000000
|117>     d 1
|118>      1       0.4775000000      1.0000000000
|119>     d 1
|120>      1       0.1828000000      1.0000000000
|121>   end
|122>   NewAuxGTO 35
|123>     S 1
|124>      1 1310.72 1.0
|125>     S 1
|126>      1  655.36 1.0
|127>     S 1
|128>      1  327.68 1.0
|129>     S 1
|130>      1  163.84 1.0
|131>     S 1
|132>      1   81.82 1.0
|133>     S 1
|134>      1   40.96 1.0
|135>     S 1
|136>      1   20.48 1.0
|137>     S 1
|138>      1   10.24 1.0
|139>     S 1
|140>      1    5.12 1.0
|141>     S 1
|142>      1    2.56 1.0
|143>     S 1
|144>      1    1.28 1.0
|145>     S 1
|146>      1    0.64 1.0
|147>     S 1
|148>      1    0.32 1.0
|149>     S 1
|150>      1    0.16 1.0
|151>     S 1
|152>      1    0.08 1.0
|153>     S 1
|154>      1    0.04 1.0
|155>     S 1
|156>      1    0.02 1.0
|157>     S 1
|158>      1    0.01 1.0
|159>   end
|160> end
|161>
|162> * xyz 0 2
|163> 35  0.0 0.0 0.0
|164> *
|165>
|166>
|167>                          ****END OF INPUT****

CARTESIAN COORDINATES (ANGSTROEM)
---------------------------------
  Br     0.000000    0.000000    0.000000

 Total Charge           Charge          ....    0
 Multiplicity           Mult            ....    2
 Number of Electrons    NEL             ....   25
 Basis Dimension        Dim             ....   41

ORBITAL ENERGIES
----------------

  NO   OCC          E(Eh)            E(eV)
   0   2.0000     -10.208149      -277.7778
   1   2.0000      -7.967620      -216.8100
   2   2.0000      -7.942752      -216.1333
   3   2.0000      -7.942748      -216.1332
   4   2.0000      -3.520584       -95.7999
   5   2.0000      -3.511985       -95.5660
   6   2.0000      -3.511981       -95.5659
   7   2.0000      -3.486064       -94.8606
   8   2.0000      -3.486064       -94.8606
   9   2.0000      -1.271383       -34.5961
  10   1.6667      -0.684491       -18.6259
  11   1.6667      -0.684480       -18.6256
  12   1.6667      -0.145441        -3.9577
  13   0.0000      -0.400122       -10.8879
  14   0.0000       0.023491         0.6392
  15   0.0000       0.029531         0.8036
  16   0.0000       0.029532         0.8036
  17   0.0000       0.184054         5.0084

FINAL SINGLE POINT ENERGY      -414.847307193764

DIPOLE MOMENT
-------------
                                X             Y             Z
Electronic contribution:      0.00000      -0.00000       0.00000
Nuclear contribution   :      0.00000       0.00000       0.00000
                        -----------------------------------------
Total Dipole Moment    :      0.00000      -0.00000       0.00000
                        -----------------------------------------
Magnitude (a.u.)       :      0.00000
Magnitude (Debye)      :      0.00000

Rotational constants in cm-1:     0.000000     0.000000     0.000000
Rotational constants in MHz :     0.000000     0.000000     0.000000

                             ****ORCA TERMINATED NORMALLY****
TOTAL RUN TIME: 0 days 0 hours 0 minutes 2 seconds 495 msec
