                         Program Version 5.0.4 -  RELEASE  -
|  1> ! RI-MP2-F12 nousesym verytightscf NoPOP PRINTBASIS
|  2>
|  3> %basis
|  4> GTOName = "/work/emmanous/4F12orbitalbasisforTMs_sequel/Cl2/ORCA/with_def2QZVPPJKfit_as_CABS/VQZ-F12/obs.orca"
|  5> GTOAuxJKName = "/work/emmanous/4F12orbitalbasisforTMs_sequel/Cl2/ORCA/with_def2QZVPPJKfit_as_CABS/VQZ-F12/jkbasis.orca"
|  6> GTOAuxCName = "/work/emmanous/4F12orbitalbasisforTMs_sequel/Cl2/ORCA/with_def2QZVPPJKfit_as_CABS/VQZ-F12/mp2fitbasis.orca"
|  7> GTOCABSName = "/work/emmanous/4F12orbitalbasisforTMs_sequel/Cl2/ORCA/with_def2QZVPPJKfit_as_CABS/VQZ-F12/cabs.orca"
|  8> end
|  9>
| 10> %pal nprocs 16
| 11> end
| 12> %maxcore 12000
| 13>
| 14> %method
| 15> F12Gamma 1.0
| 16> end
| 17>
| 18> *xyz 0 1
| 19> Cl 	0.0000 	0.0000 	0.0000
| 20> Cl 	0.0000 	0.0000 	1.9879
| 21> *
| 22>
| 23>                          ****END OF INPUT****

CARTESIAN COORDINATES (ANGSTROEM)
---------------------------------
  Cl     0.000000    0.000000    0.000000
  Cl     0.000000    0.000000    1.987900

 Total Charge           Charge          ....    0
 Multiplicity           Mult            ....    1
 Number of Electrons    NEL             ....   34
 Basis Dimension        Dim             ....  192

ORBITAL ENERGIES
----------------

  NO   OCC          E(Eh)            E(eV)
   0   2.0000    -104.897623     -2854.4094
   1   2.0000    -104.897621     -2854.4094
   2   2.0000     -10.619616      -288.9745
   3   2.0000     -10.619446      -288.9698
   4   2.0000      -8.086462      -220.0438
   5   2.0000      -8.086188      -220.0364
   6   2.0000      -8.084146      -219.9808
   7   2.0000      -8.084146      -219.9808
   8   2.0000      -8.084139      -219.9806
   9   2.0000      -8.084139      -219.9806
  10   2.0000      -1.218661       -33.1614
  11   2.0000      -1.014638       -27.6097
  12   2.0000      -0.598079       -16.2745
  13   2.0000      -0.570072       -15.5124
  14   2.0000      -0.570072       -15.5124
  15   2.0000      -0.443704       -12.0738
  16   2.0000      -0.443704       -12.0738
  17   0.0000       0.023882         0.6499
  18   0.0000       0.078204         2.1280
  19   0.0000       0.084302         2.2940
  20   0.0000       0.084302         2.2940
  21   0.0000       0.084928         2.3110

-------
TIMINGS
-------

MP2 TOTAL ENERGY:     -919.467302077 Eh
FINAL SINGLE POINT ENERGY      -919.467302077272

DIPOLE MOMENT
-------------
                                X             Y             Z
Electronic contribution:      0.00000       0.00000      -0.00000
Nuclear contribution   :      0.00000       0.00000       0.00000
                        -----------------------------------------
Total Dipole Moment    :      0.00000       0.00000      -0.00000
                        -----------------------------------------
Magnitude (a.u.)       :      0.00000
Magnitude (Debye)      :      0.00000

Rotational constants in cm-1:     0.000000     0.240649     0.240649
Rotational constants in MHz :     0.000000  7214.488434  7214.488434

                             ****ORCA TERMINATED NORMALLY****
TOTAL RUN TIME: 0 days 0 hours 0 minutes 46 seconds 993 msec
