                         Program Version 5.0.4 -  RELEASE  -
|  1> ! RI-MP2-F12 nousesym verytightscf NoPOP PRINTBASIS
|  2>
|  3> %basis
|  4> GTOName = "/work/emmanous/4F12orbitalbasisforTMs_sequel/Br2/ORCA/VQZ-PP-F12/obs.orca"
|  5> GTOAuxJKName = "/work/emmanous/4F12orbitalbasisforTMs_sequel/Br2/ORCA/VQZ-PP-F12/jkbasis.orca"
|  6> GTOAuxCName = "/work/emmanous/4F12orbitalbasisforTMs_sequel/Br2/ORCA/VQZ-PP-F12/mp2fitbasis.orca"
|  7> GTOCABSName = "/work/emmanous/4F12orbitalbasisforTMs_sequel/Br2/ORCA/VQZ-PP-F12/jkbasis.orca"
|  8> NewECP Br "SK-MCDHF-RSC" end
|  9> DecontractCABS  false
| 10> end
| 11>
| 12> %pal nprocs 16
| 13> end
| 14> %maxcore 12000
| 15>
| 16> %method
| 17> NewNCore Br 10 end
| 18> F12Gamma 1.0
| 19> end
| 20>
| 21> *xyz 0 1
| 22> Br 	0.0000 	0.0000 	1.1405
| 23> Br 	0.0000 	0.0000 	-1.1405
| 24> *
| 25>
| 26>                          ****END OF INPUT****

CARTESIAN COORDINATES (ANGSTROEM)
---------------------------------
  Br     0.000000    0.000000    1.140500
  Br     0.000000    0.000000   -1.140500

 Total Charge           Charge          ....    0
 Multiplicity           Mult            ....    1
 Number of Electrons    NEL             ....   50
 Basis Dimension        Dim             ....  198

ORBITAL ENERGIES
----------------

  NO   OCC          E(Eh)            E(eV)
   0   2.0000      -9.872717      -268.6503
   1   2.0000      -9.872662      -268.6488
   2   2.0000      -7.626780      -207.5352
   3   2.0000      -7.626640      -207.5314
   4   2.0000      -7.615599      -207.2310
   5   2.0000      -7.615599      -207.2310
   6   2.0000      -7.615584      -207.2306
   7   2.0000      -7.615584      -207.2306
   8   2.0000      -3.180425       -86.5438
   9   2.0000      -3.177984       -86.4773
  10   2.0000      -3.175057       -86.3977
  11   2.0000      -3.175057       -86.3977
  12   2.0000      -3.174262       -86.3761
  13   2.0000      -3.174262       -86.3761
  14   2.0000      -3.162387       -86.0529
  15   2.0000      -3.162387       -86.0529
  16   2.0000      -3.162336       -86.0515
  17   2.0000      -3.162336       -86.0515
  18   2.0000      -1.126568       -30.6555
  19   2.0000      -0.978052       -26.6141
  20   2.0000      -0.533299       -14.5118
  21   2.0000      -0.504080       -13.7167
  22   2.0000      -0.504080       -13.7167
  23   2.0000      -0.404925       -11.0186
  24   2.0000      -0.404925       -11.0186
  25   0.0000      -0.004541        -0.1236
  26   0.0000       0.059194         1.6107
  27   0.0000       0.059708         1.6247
  28   0.0000       0.065846         1.7918
  29   0.0000       0.065846         1.7918

-------
TIMINGS
-------

MP2 TOTAL ENERGY:     -833.976209791 Eh
FINAL SINGLE POINT ENERGY      -833.976209791372

DIPOLE MOMENT
-------------
                                X             Y             Z
Electronic contribution:     -0.00000       0.00000      -0.00000
Nuclear contribution   :      0.00000       0.00000       0.00000
                        -----------------------------------------
Total Dipole Moment    :     -0.00000       0.00000      -0.00000
                        -----------------------------------------
Magnitude (a.u.)       :      0.00000
Magnitude (Debye)      :      0.00000

Rotational constants in cm-1:     0.000000     0.081102     0.081102
Rotational constants in MHz :     0.000000  2431.365499  2431.365499

                             ****ORCA TERMINATED NORMALLY****
TOTAL RUN TIME: 0 days 0 hours 4 minutes 8 seconds 422 msec
