                         Program Version 5.0.4 -  RELEASE  -
|  1> # input to generate an atomic fitting density for Br
|  2> # this file is used internally by ORCA
|  3> #
|  4> # atomic ground state (S=2): 1s2 2s2 2p6 3s2 3p6 4s2 3d10 4p5
|  5> #
|  6> ! RHF AllowRHF def2-SVP def2/J  NoMulliken NoLoewdin NoMayer NoPrintMOs
|  7>
|  8> %output print[p_atomdensfit] 2 end
|  9>
| 10> %scf
| 11>   guess hcore
| 12>   maxiter 1000
| 13>   maxdisk 500000
| 14>   SCFMode Conventional
| 15>   lshift 1.000000
| 16>   hftyp rohf
| 17>   rohf_case sahf
| 18>   rohf_numop   2
| 19>   rohf_norb[1] 3
| 20>   rohf_nel[1]  5
| 21> end
| 22>
| 23> %basis
| 24>   NewECP 35
| 25>     N_core 10
| 26>     lmax g
| 27>     s 3
| 28>       1      70.0242570000     49.9628340000  2
| 29>       2      31.1784120000    370.0142050000  2
| 30>       3       7.1565930000     10.2414390000  2
| 31>     p 4
| 32>       1      46.7734710000     99.1122440000  2
| 33>       2      46.1841200000    198.2530460000  2
| 34>       3      21.7138580000     28.2617400000  2
| 35>       4      20.9417920000     56.6233660000  2
| 36>     d 6
| 37>       1      50.6988390000    -18.6058530000  2
| 38>       2      50.6447640000    -27.9232800000  2
| 39>       3      15.4475090000     -0.3796930000  2
| 40>       4      15.5002590000     -0.7805830000  2
| 41>       5       2.8003910000      0.0359680000  2
| 42>       6       1.0774800000      0.0943970000  2
| 43>     f 2
| 44>       1      14.4656060000     -1.0912690000  2
| 45>       2      21.2340650000     -2.8876910000  2
| 46>     g 1
| 47>       1       1.0000000000      0.0000000000  2
| 48>   end
| 49>   NewGTO 35
| 50>     s 16
| 51>      1  200938.0000000000      0.0000090000
| 52>      2   29988.8000000000      0.0000670000
| 53>      3    6825.5600000000      0.0003470002
| 54>      4    1940.5200000000      0.0013380007
| 55>      5     635.8020000000      0.0039120019
| 56>      6     224.4040000000      0.0075260037
| 57>      7      37.6333000000      0.1644060804
| 58>      8      23.5218000000     -0.3355151640
| 59>      9      11.8595000000     -0.2547661245
| 60>     10       7.4061100000      0.1758060859
| 61>     11       3.5814200000      0.6294173077
| 62>     12       1.8335600000      0.4504232202
| 63>     13       0.8030160000      0.0570870279
| 64>     14       0.4622600000     -0.0069710034
| 65>     15       0.2196120000      0.0022810011
| 66>     16       0.0997550000     -0.0002020001
| 67>     s 16
| 68>      1  200938.0000000000     -0.0000030000
| 69>      2   29988.8000000000     -0.0000280000
| 70>      3    6825.5600000000     -0.0001380000
| 71>      4    1940.5200000000     -0.0005560000
| 72>      5     635.8020000000     -0.0015320001
| 73>      6     224.4040000000     -0.0032430003
| 74>      7      37.6333000000     -0.0617910049
| 75>      8      23.5218000000      0.1335230105
| 76>      9      11.8595000000      0.0836960066
| 77>     10       7.4061100000     -0.0573700045
| 78>     11       3.5814200000     -0.3378010266
| 79>     12       1.8335600000     -0.3785490298
| 80>     13       0.8030160000      0.0378300030
| 81>     14       0.4622600000      0.5364770423
| 82>     15       0.2196120000      0.5413650426
| 83>     16       0.0997550000      0.1316200104
| 84>     s 1
| 85>      1       1.8335600000      1.0000000000
| 86>     s 1
| 87>      1       0.8030160000      1.0000000000
| 88>     s 1
| 89>      1       0.4622600000      1.0000000000
| 90>     s 1
| 91>      1       0.2196120000      1.0000000000
| 92>     s 1
| 93>      1       0.0997550000      1.0000000000
| 94>     s 1
| 95>      1       0.0391000000      1.0000000000
| 96>     p 13
| 97>      1    1328.6400000000      0.0000980000
| 98>      2     312.5360000000      0.0006740000
| 99>      3      74.1900000000      0.0089479999
|100>      4      37.6058000000     -0.0249849996
|101>      5      23.5026000000     -0.0763879988
|102>      6       8.4691300000      0.2141129967
|103>      7       4.7068700000      0.4033529937
|104>      8       2.5568200000      0.3631399943
|105>      9       1.3564700000      0.1381569978
|106>     10       0.6468200000      0.0142539998
|107>     11       0.3078880000      0.0006570000
|108>     12       0.1425070000      0.0006010000
|109>     13       0.0637020000      0.0000550000
|110>     p 13
|111>      1    1328.6400000000     -0.0000290000
|112>      2     312.5360000000     -0.0001930000
|113>      3      74.1900000000     -0.0026800003
|114>      4      37.6058000000      0.0083940010
|115>      5      23.5026000000      0.0202870025
|116>      6       8.4691300000     -0.0716790087
|117>      7       4.7068700000     -0.1279330156
|118>      8       2.5568200000     -0.1481780180
|119>      9       1.3564700000     -0.0013850002
|120>     10       0.6468200000      0.2854460347
|121>     11       0.3078880000      0.4449260542
|122>     12       0.1425070000      0.3376320411
|123>     13       0.0637020000      0.0880660107
|124>     p 3
|125>      1       1.3564700000      0.3997171156
|126>      2       0.3078880000      0.3997171156
|127>      3       0.1425070000      0.3997171156
|128>     p 1
|129>      1       0.0637020000      1.0000000000
|130>     p 1
|131>      1       0.0269000000      1.0000000000
|132>     d 12
|133>      1    1441.5800000000      0.0000600000
|134>      2     437.6910000000      0.0006249999
|135>      3     172.1530000000      0.0041529990
|136>      4      78.2124000000      0.0210119951
|137>      5      39.6082000000      0.0628139855
|138>      6      20.3440000000      0.1358289686
|139>      7      10.7392000000      0.2291319471
|140>      8       5.7077300000      0.2936929321
|141>      9       3.0219400000      0.2863459338
|142>     10       1.5766900000      0.1900189561
|143>     11       0.7844110000      0.0686939841
|144>     12       0.3352350000      0.0084029981
|145>     d 1
|146>      1       2.6608000000      1.0000000000
|147>     d 1
|148>      1       0.7434000000      1.0000000000
|149>     d 1
|150>      1       0.4095000000      1.0000000000
|151>     d 1
|152>      1       0.2256000000      1.0000000000
|153>     d 1
|154>      1       0.1242000000      1.0000000000
|155>   end
|156>   NewAuxGTO 35
|157>     S 1
|158>      1 1310.72 1.0
|159>     S 1
|160>      1  655.36 1.0
|161>     S 1
|162>      1  327.68 1.0
|163>     S 1
|164>      1  163.84 1.0
|165>     S 1
|166>      1   81.82 1.0
|167>     S 1
|168>      1   40.96 1.0
|169>     S 1
|170>      1   20.48 1.0
|171>     S 1
|172>      1   10.24 1.0
|173>     S 1
|174>      1    5.12 1.0
|175>     S 1
|176>      1    2.56 1.0
|177>     S 1
|178>      1    1.28 1.0
|179>     S 1
|180>      1    0.64 1.0
|181>     S 1
|182>      1    0.32 1.0
|183>     S 1
|184>      1    0.16 1.0
|185>     S 1
|186>      1    0.08 1.0
|187>     S 1
|188>      1    0.04 1.0
|189>     S 1
|190>      1    0.02 1.0
|191>     S 1
|192>      1    0.01 1.0
|193>   end
|194> end
|195>
|196> * xyz 0 2
|197> 35  0.0 0.0 0.0
|198> *
|199>
|200>
|201>                          ****END OF INPUT****

CARTESIAN COORDINATES (ANGSTROEM)
---------------------------------
  Br     0.000000    0.000000    0.000000

 Total Charge           Charge          ....    0
 Multiplicity           Mult            ....    2
 Number of Electrons    NEL             ....   25
 Basis Dimension        Dim             ....   53

ORBITAL ENERGIES
----------------

  NO   OCC          E(Eh)            E(eV)
   0   2.0000     -10.239285      -278.6251
   1   2.0000      -7.998001      -217.6367
   2   2.0000      -7.973749      -216.9767
   3   2.0000      -7.973745      -216.9766
   4   2.0000      -3.551088       -96.6300
   5   2.0000      -3.542743       -96.4029
   6   2.0000      -3.542741       -96.4029
   7   2.0000      -3.517617       -95.7192
   8   2.0000      -3.517616       -95.7192
   9   2.0000      -1.289008       -35.0757
  10   1.6667      -0.697288       -18.9742
  11   1.6667      -0.697272       -18.9737
  12   1.6667      -0.150990        -4.1086
  13   0.0000      -0.414318       -11.2742
  14   0.0000       0.005149         0.1401
  15   0.0000       0.009661         0.2629
  16   0.0000       0.009663         0.2630
  17   0.0000       0.111806         3.0424

FINAL SINGLE POINT ENERGY      -414.849109505509

DIPOLE MOMENT
-------------
                                X             Y             Z
Electronic contribution:      0.00000       0.00000      -0.00000
Nuclear contribution   :      0.00000       0.00000       0.00000
                        -----------------------------------------
Total Dipole Moment    :      0.00000       0.00000      -0.00000
                        -----------------------------------------
Magnitude (a.u.)       :      0.00000
Magnitude (Debye)      :      0.00000

Rotational constants in cm-1:     0.000000     0.000000     0.000000
Rotational constants in MHz :     0.000000     0.000000     0.000000

                             ****ORCA TERMINATED NORMALLY****
TOTAL RUN TIME: 0 days 0 hours 0 minutes 4 seconds 677 msec
