                         Program Version 5.0.4 -  RELEASE  -
|  1> ! RI-MP2-F12 nousesym verytightscf NoPOP PRINTBASIS
|  2>
|  3> %basis
|  4> GTOName = "/work/emmanous/4F12orbitalbasisforTMs_sequel/I2/VDZ-PP-F12/ORCA/obs.orca"
|  5> GTOAuxJKName = "/work/emmanous/4F12orbitalbasisforTMs_sequel/I2/VDZ-PP-F12/ORCA/jkbasis.orca"
|  6> GTOAuxCName = "/work/emmanous/4F12orbitalbasisforTMs_sequel/I2/VDZ-PP-F12/ORCA/mp2fitbasis.orca"
|  7> GTOCABSName = "/work/emmanous/4F12orbitalbasisforTMs_sequel/I2/VDZ-PP-F12/ORCA/jkbasis.orca"
|  8> NewECP I "SK-MCDHF-RSC" end
|  9> DecontractCABS  false
| 10> end
| 11>
| 12> %pal nprocs 16
| 13> end
| 14> %maxcore 2000
| 15>
| 16> %method
| 17> NewNCore I 28 end
| 18> F12Gamma 0.9
| 19> end
| 20>
| 21> *xyz 0 1
| 22> I 	0.0000 	0.0000 	0.0000
| 23> I 	0.0000 	0.0000  2.6655
| 24> *
| 25>
| 26>                          ****END OF INPUT****

CARTESIAN COORDINATES (ANGSTROEM)
---------------------------------
  I      0.000000    0.000000    0.000000
  I      0.000000    0.000000    2.665500

 Total Charge           Charge          ....    0
 Multiplicity           Mult            ....    1
 Number of Electrons    NEL             ....   50
 Basis Dimension        Dim             ....   96

ORBITAL ENERGIES
----------------

  NO   OCC          E(Eh)            E(eV)
   0   2.0000      -7.755571      -211.0398
   1   2.0000      -7.755540      -211.0390
   2   2.0000      -5.590911      -152.1364
   3   2.0000      -5.590657      -152.1295
   4   2.0000      -5.575510      -151.7173
   5   2.0000      -5.575510      -151.7173
   6   2.0000      -5.575475      -151.7164
   7   2.0000      -5.575475      -151.7164
   8   2.0000      -2.322794       -63.2064
   9   2.0000      -2.316891       -63.0458
  10   2.0000      -2.314470       -62.9799
  11   2.0000      -2.314470       -62.9799
  12   2.0000      -2.312570       -62.9282
  13   2.0000      -2.312570       -62.9282
  14   2.0000      -2.297209       -62.5102
  15   2.0000      -2.297209       -62.5102
  16   2.0000      -2.297067       -62.5064
  17   2.0000      -2.297067       -62.5064
  18   2.0000      -0.964430       -26.2435
  19   2.0000      -0.843946       -22.9649
  20   2.0000      -0.471836       -12.8393
  21   2.0000      -0.439621       -11.9627
  22   2.0000      -0.439621       -11.9627
  23   2.0000      -0.360712        -9.8155
  24   2.0000      -0.360712        -9.8155
  25   0.0000      -0.023786        -0.6473
  26   0.0000       0.071288         1.9398
  27   0.0000       0.089394         2.4325
  28   0.0000       0.100675         2.7395
  29   0.0000       0.100675         2.7395

-------
TIMINGS
-------

MP2 TOTAL ENERGY:     -590.796670887 Eh
FINAL SINGLE POINT ENERGY      -590.796670887090

DIPOLE MOMENT
-------------
                                X             Y             Z
Electronic contribution:     -0.00000      -0.00000      -0.00000
Nuclear contribution   :      0.00000       0.00000       0.00000
                        -----------------------------------------
Total Dipole Moment    :     -0.00000      -0.00000      -0.00000
                        -----------------------------------------
Magnitude (a.u.)       :      0.00000
Magnitude (Debye)      :      0.00000

Rotational constants in cm-1:     0.000000     0.037395     0.037395
Rotational constants in MHz :     0.000000  1121.059346  1121.059346

                             ****ORCA TERMINATED NORMALLY****
TOTAL RUN TIME: 0 days 0 hours 1 minutes 38 seconds 699 msec
