                         Program Version 5.0.4 -  RELEASE  -
|  1> # input to generate an atomic fitting density for I
|  2> # this file is used internally by ORCA
|  3> #
|  4> # atomic ground state (S=2): 1s2 2s2 2p6 3s2 3p6 4s2 3d10 4p6 5s2 4d10 5p5
|  5> #
|  6> ! RHF AllowRHF def2-SVP def2/J  NoMulliken NoLoewdin NoMayer NoPrintMOs
|  7>
|  8> %output print[p_atomdensfit] 2 end
|  9>
| 10> %scf
| 11>   guess hcore
| 12>   maxiter 1000
| 13>   maxdisk 500000
| 14>   SCFMode Conventional
| 15>   lshift 1.000000
| 16>   hftyp rohf
| 17>   rohf_case sahf
| 18>   rohf_numop   2
| 19>   rohf_norb[1] 3
| 20>   rohf_nel[1]  5
| 21> end
| 22>
| 23> %basis
| 24>   NewECP 53
| 25>     N_core 28
| 26>     lmax g
| 27>     s 3
| 28>       1      40.0333760000     49.9896490000  2
| 29>       2      17.3005760000    281.0065560000  2
| 30>       3       8.8517200000     61.4167390000  2
| 31>     p 4
| 32>       1      15.7201410000     67.4162390000  2
| 33>       2      15.2082220000    134.8076960000  2
| 34>       3       8.2941860000     14.5665480000  2
| 35>       4       7.7539490000     28.9684220000  2
| 36>     d 4
| 37>       1      13.8177510000     35.5387560000  2
| 38>       2      13.5878050000     53.3397590000  2
| 39>       3       6.9476300000      9.7164660000  2
| 40>       4       6.9600990000     14.9775000000  2
| 41>     f 4
| 42>       1      18.5229500000    -20.1766180000  2
| 43>       2      18.2510350000    -26.0880770000  2
| 44>       3       7.5579010000     -0.2204340000  2
| 45>       4       7.5974040000     -0.2216460000  2
| 46>     g 1
| 47>       1       1.0000000000      0.0000000000  2
| 48>   end
| 49>   NewGTO 53
| 50>     s 11
| 51>      1    5546.5000000000      0.0001560000
| 52>      2     838.2140000000      0.0009860001
| 53>      3     182.1870000000      0.0027920003
| 54>      4      31.2123000000     -0.0432510040
| 55>      5      19.5314000000      0.2341340218
| 56>      6       8.2409900000     -0.7509430698
| 57>      7       2.1945500000      0.8829680821
| 58>      8       1.1091100000      0.4620610429
| 59>      9       0.3746410000      0.0222860021
| 60>     10       0.1770800000     -0.0043530004
| 61>     11       0.0810610000      0.0011020001
| 62>     s 11
| 63>      1    5546.5000000000     -0.0000730000
| 64>      2     838.2140000000     -0.0005080003
| 65>      3     182.1870000000     -0.0011580007
| 66>      4      31.2123000000      0.0121930073
| 67>      5      19.5314000000     -0.0878540525
| 68>      6       8.2409900000      0.3382002020
| 69>      7       2.1945500000     -0.5765503443
| 70>      8       1.1091100000     -0.4092982444
| 71>      9       0.3746410000      0.5674593389
| 72>     10       0.1770800000      0.6124893658
| 73>     11       0.0810610000      0.1432310855
| 74>     s 1
| 75>      1       0.3746410000      1.0000000000
| 76>     s 1
| 77>      1       0.1770800000      1.0000000000
| 78>     s 1
| 79>      1       0.1001000000      1.0000000000
| 80>     s 1
| 81>      1       0.0412000000      1.0000000000
| 82>     p 9
| 83>      1     188.9880000000      0.0005850001
| 84>      2      21.2868000000      0.0369230042
| 85>      3      10.0396000000     -0.2353240265
| 86>      4       3.4518000000      0.3414830385
| 87>      5       1.9745600000      0.5347880603
| 88>      6       1.0242000000      0.2651410299
| 89>      7       0.4494370000      0.0257870029
| 90>      8       0.1866480000      0.0005220001
| 91>      9       0.0734810000      0.0006060001
| 92>     p 9
| 93>      1     188.9880000000     -0.0002559999
| 94>      2      21.2868000000     -0.0116819954
| 95>      3      10.0396000000      0.0831919674
| 96>      4       3.4518000000     -0.1569699385
| 97>      5       1.9745600000     -0.2245179120
| 98>      6       1.0242000000     -0.1144509551
| 99>      7       0.4494370000      0.3753558529
|100>      8       0.1866480000      0.5751357746
|101>      9       0.0734810000      0.2459169036
|102>     p 1
|103>      1       0.5981000000      1.0000000000
|104>     p 1
|105>      1       0.0961800000      1.0000000000
|106>     p 1
|107>      1       0.0359000000      1.0000000000
|108>     d 9
|109>      1     132.6620000000      0.0005720001
|110>      2      37.6054000000      0.0044020006
|111>      3      10.3891000000     -0.0409220051
|112>      4       6.4901700000      0.0996610125
|113>      5       3.4545100000      0.3226630405
|114>      6       1.8441300000      0.4003430502
|115>      7       0.9624780000      0.2683060336
|116>      8       0.4728530000      0.0848470106
|117>      9       0.1932000000      0.0076320010
|118>     d 1
|119>      1       1.7989000000      1.0000000000
|120>     d 1
|121>      1       0.3558000000      1.0000000000
|122>     d 1
|123>      1       0.1434000000      1.0000000000
|124>   end
|125>   NewAuxGTO 53
|126>     S 1
|127>      1 1310.72 1.0
|128>     S 1
|129>      1  655.36 1.0
|130>     S 1
|131>      1  327.68 1.0
|132>     S 1
|133>      1  163.84 1.0
|134>     S 1
|135>      1   81.82 1.0
|136>     S 1
|137>      1   40.96 1.0
|138>     S 1
|139>      1   20.48 1.0
|140>     S 1
|141>      1   10.24 1.0
|142>     S 1
|143>      1    5.12 1.0
|144>     S 1
|145>      1    2.56 1.0
|146>     S 1
|147>      1    1.28 1.0
|148>     S 1
|149>      1    0.64 1.0
|150>     S 1
|151>      1    0.32 1.0
|152>     S 1
|153>      1    0.16 1.0
|154>     S 1
|155>      1    0.08 1.0
|156>     S 1
|157>      1    0.04 1.0
|158>     S 1
|159>      1    0.02 1.0
|160>     S 1
|161>      1    0.01 1.0
|162>   end
|163> end
|164>
|165> * xyz 0 2
|166> 53  0.0 0.0 0.0
|167> *
|168>
|169>
|170>                          ****END OF INPUT****

CARTESIAN COORDINATES (ANGSTROEM)
---------------------------------
  I      0.000000    0.000000    0.000000

 Total Charge           Charge          ....    0
 Multiplicity           Mult            ....    2
 Number of Electrons    NEL             ....   25
 Basis Dimension        Dim             ....   41

ORBITAL ENERGIES
----------------

  NO   OCC          E(Eh)            E(eV)
   0   2.0000      -7.746055      -210.7809
   1   2.0000      -5.570927      -151.5926
   2   2.0000      -5.570927      -151.5926
   3   2.0000      -5.570927      -151.5926
   4   2.0000      -2.298396       -62.5425
   5   2.0000      -2.298396       -62.5425
   6   2.0000      -2.298396       -62.5425
   7   2.0000      -2.298396       -62.5425
   8   2.0000      -2.298396       -62.5425
   9   2.0000      -0.876423       -23.8487
  10   1.6667      -0.401821       -10.9341
  11   1.6667      -0.401821       -10.9341
  12   1.6667      -0.401821       -10.9341
  13   0.0000       0.037692         1.0257
  14   0.0000       0.069392         1.8883
  15   0.0000       0.069392         1.8883
  16   0.0000       0.069392         1.8883
  17   0.0000       0.252610         6.8739

FINAL SINGLE POINT ENERGY      -294.655378171180

DIPOLE MOMENT
-------------
                                X             Y             Z
Electronic contribution:     -0.00000      -0.00000      -0.00000
Nuclear contribution   :      0.00000       0.00000       0.00000
                        -----------------------------------------
Total Dipole Moment    :     -0.00000      -0.00000      -0.00000
                        -----------------------------------------
Magnitude (a.u.)       :      0.00000
Magnitude (Debye)      :      0.00000

Rotational constants in cm-1:     0.000000     0.000000     0.000000
Rotational constants in MHz :     0.000000     0.000000     0.000000

                             ****ORCA TERMINATED NORMALLY****
TOTAL RUN TIME: 0 days 0 hours 0 minutes 1 seconds 970 msec
